<LesHouchesEvents version="1.0">
<!--
File generated with PYTHIA *
-->
<init>
2212 2212 7.0E+03 7.0E+03 4 4 46 46 1 1
1.0 1.0 1.0 661
</init>
<event>
 30 661  1.  12.5671034  0.00781999994  0.115999997
      -1  -1   0   0   0 501    -0.95    -0.13   716.64   716.64     0.00 0. 9.
       1  -1   0   0 501   0    -2.67     0.84 -2530.53  2530.53     0.00 0. 9.
      32   2   1   2   0   0    -3.62     0.72 -1813.89  3247.17  2693.30   0.0000 9.
 6000002   2   3   0   0   0   660.17 -1168.25  -788.00  1556.14     0.01   0.0000 9.
-6000002   2   3   0   0   0  -663.78  1168.97 -1025.89  1691.02     0.01   0.0000 9.
 6000092   2   4   0   0   0    -3.62     0.72 -1813.89  3247.17  2693.30   0.0000 9.
-6000211   1   6   0   0   0  -106.03    91.25   -95.70   169.99    12.99   0.0000 9.
 6000111   2   6   0   0   0  -125.50   222.82  -168.78   306.67    12.57   1.4883 9.
 6000211   1   6   0   0   0  -249.20   355.52  -326.08   543.13    12.99   0.0000 9.
-6000211   1   6   0   0   0     2.65     5.29   -10.99    18.01    12.99   0.0000 9.
 6000211   1   6   0   0   0   152.99   -77.14  -153.99   230.73    12.99   0.0000 9.
 6000111   2   6   0   0   0   -10.67   -42.25    -4.56    45.58    12.57  10.6827 9.
-6002212   1   6   0   0   0   313.60  -446.90  -365.40   662.73    87.36   0.0000 9.
 6002212   1   6   0   0   0   221.74  -431.83  -261.07   558.06    87.36   0.0000 9.
 6000211   1   6   0   0   0   -37.29    82.85   -63.08   111.37    12.99   0.0000 9.
-6000211   1   6   0   0   0   -73.04   154.42  -123.40   211.14    12.99   0.0000 9.
 6000111   2   6   0   0   0   -45.93    64.78   -67.95   105.26    12.57   9.2889 9.
-6000211   1   6   0   0   0    22.81    54.72   -52.39    80.18    12.99   0.0000 9.
 6000211   1   6   0   0   0   -14.24    18.56   -15.69    31.02    12.99   0.0000 9.
 6000111   2   6   0   0   0     2.33    11.17   -42.29    45.57    12.57  45.1395 9.
 6000211   1   6   0   0   0     0.87   -29.72   -47.63    57.63    12.99   0.0000 9.
-6000211   1   6   0   0   0   -58.69   -32.83   -14.89    70.10    12.99   0.0000 9.
       5   1   8   0 512   0   -77.63   129.90   -99.78   181.33     4.80   0.0000 9.
      -5   1   8   0   0 512   -47.87    92.92   -69.00   125.34     4.80   0.0000 9.
       5   1  12   0 516   0    -6.29   -33.49    -2.72    34.52     4.80   0.0000 9.
      -5   1  12   0   0 516    -4.38    -8.76    -1.84    11.06     4.80   0.0000 9.
       5   1  17   0 521   0   -21.28    24.96   -24.72    41.35     4.80   0.0000 9.
      -5   1  17   0   0 521   -24.65    39.82   -43.23    63.91     4.80   0.0000 9.
       5   1  20   0 524   0     2.95     3.46    -9.76    11.79     4.80   0.0000 9.
      -5   1  20   0   0 524    -0.62     7.71   -32.53    33.78     4.80   0.0000 9.
</event>
<event>
 43 661  1.  12.5671034  0.00781999994  0.115999997
       2  -1   0   0 501   0     0.04    -0.58  3234.85  3234.85     0.00 0. 9.
      -2  -1   0   0   0 501     1.04    -0.71  -828.56   828.56     0.00 0. 9.
      32   2   1   2   0   0     1.09    -1.30  2406.29  4063.40  3274.29   0.0000 9.
 6000002   2   3   0   0   0   584.59 -1509.29   891.88  1848.01     0.01   0.0000 9.
-6000002   2   3   0   0   0  -583.50  1507.99  1514.41  2215.39     0.01   0.0000 9.
 6000092   2   4   0   0   0     1.09    -1.30  2406.29  4063.40  3274.29   0.0000 9.
-6000211   1   6   0   0   0  -174.92   418.86   480.25   660.94    12.99   0.0000 9.
-6002112   1   6   0   0   0  -170.33   411.91   402.84   607.13    87.48   0.0000 9.
-6000211   1   6   0   0   0   -37.57    29.56   -13.45    51.33    12.99   0.0000 9.
 6000111   2   6   0   0   0    43.57   -97.86    36.31   113.80    12.57  10.9028 9.
-6002212   1   6   0   0   0    45.21  -194.56    53.42   224.46    87.36   0.0000 9.
 6002212   1   6   0   0   0    86.72  -542.11   257.22   612.54    87.36   0.0000 9.
-6000211   1   6   0   0   0   -29.95    63.43    86.49   112.12    12.99   0.0000 9.
 6000211   1   6   0   0   0   -39.90   234.04   171.03   292.89    12.99   0.0000 9.
 6002112   1   6   0   0   0    34.44    84.90   160.39   204.38    87.48   0.0000 9.
 6000111   2   6   0   0   0   -11.15    21.76    18.46    33.12    12.57   2.0923 9.
 6000211   1   6   0   0   0    11.42    45.89    56.87    75.09    12.99   0.0000 9.
 6000111   2   6   0   0   0    32.22    -5.46   116.14   121.31    12.57  32.7103 9.
 6000211   1   6   0   0   0    34.84   -19.12    91.38   100.49    12.99   0.0000 9.
 6000111   2   6   0   0   0    -2.04   -28.28    48.58    57.64    12.57  10.3075 9.
-6002112   1   6   0   0   0    15.00    21.89    52.50   105.42    87.48   0.0000 9.
-6000211   1   6   0   0   0   -12.74    10.68    -4.03    21.48    12.99   0.0000 9.
 6002112   1   6   0   0   0    70.42  -133.95   192.36   259.91    87.48   0.0000 9.
 6000211   1   6   0   0   0     7.75   -11.49    11.49    22.20    12.99   0.0000 9.
 6000111   2   6   0   0   0     5.81   -31.70    13.29    37.05    12.57   1.4257 9.
 6000111   2   6   0   0   0    28.74   -51.13    44.73    74.82    12.57   5.3356 9.
 6000211   1   6   0   0   0    14.40   -47.61    18.06    54.49    12.99   0.0000 9.
-6000211   1   6   0   0   0    42.45  -144.58    88.92   175.45    12.99   0.0000 9.
 6000111   2   6   0   0   0     6.69   -36.35    23.05    45.34    12.57   4.9686 9.
       5   1  10   0 514   0    25.54   -50.22    22.03    60.69     4.80   0.0000 9.
      -5   1  10   0   0 514    18.03   -47.64    14.28    53.12     4.80   0.0000 9.
       5   1  16   0 520   0    -0.69     6.88     7.89    11.53     4.80   0.0000 9.
      -5   1  16   0   0 520   -10.46    14.89    10.57    21.58     4.80   0.0000 9.
       5   1  18   0 522   0    26.22    -4.83    95.59    99.35     4.80   0.0000 9.
      -5   1  18   0   0 522     6.01    -0.63    20.56    21.96     4.80   0.0000 9.
       5   1  20   0 524   0    -1.78   -15.60    33.80    37.58     4.80   0.0000 9.
      -5   1  20   0   0 524    -0.25   -12.68    14.78    20.06     4.80   0.0000 9.
       5   1  25   0 529   0     3.63   -10.95     8.52    15.12     4.80   0.0000 9.
      -5   1  25   0   0 529     2.18   -20.75     4.78    21.94     4.80   0.0000 9.
       5   1  26   0 530   0    20.20   -39.08    30.34    53.65     4.80   0.0000 9.
      -5   1  26   0   0 530     8.54   -12.05    14.38    21.17     4.80   0.0000 9.
       5   1  29   0 533   0     5.68   -17.52     7.62    20.51     4.80   0.0000 9.
      -5   1  29   0   0 533     1.01   -18.83    15.43    24.83     4.80   0.0000 9.
</event>
<event>
 41 661  1.  12.5671034  0.00781999994  0.115999997
      -2  -1   0   0   0 501    -0.46    -1.67  1102.41  1102.41     0.00 0. 9.
       2  -1   0   0 501   0     1.15    -3.67 -2191.88  2191.88     0.00 0. 9.
      32   2   1   2   0   0     0.70    -5.34 -1089.47  3294.29  3108.92   0.0000 9.
 6000001   2   3   0   0   0    -2.96  -565.35   990.37  1140.37     0.01   0.0000 9.
-6000001   2   3   0   0   0     3.66   560.01 -2079.84  2153.92     0.01   0.0000 9.
 6000092   2   4   0   0   0     0.70    -5.34 -1089.47  3294.29  3108.92   0.0000 9.
 6000211   1   6   0   0   0    24.86    68.79  -217.37   229.72    12.99   0.0000 9.
-6000211   1   6   0   0   0    28.27   201.98  -732.65   760.62    12.99   0.0000 9.
 6000111   2   6   0   0   0     8.59    11.48     8.39    20.83    12.57  14.9492 9.
 6000111   2   6   0   0   0    34.67   -44.51    -9.09    58.51    12.57   9.3302 9.
-6000211   1   6   0   0   0   -37.50  -175.69   249.40   307.64    12.99   0.0000 9.
 6000211   1   6   0   0   0   -39.30   103.44  -290.67   311.29    12.99   0.0000 9.
-6000211   1   6   0   0   0    31.57    10.56   -94.54   101.06    12.99   0.0000 9.
-6000211   1   6   0   0   0   -14.11    85.22  -376.28   386.29    12.99   0.0000 9.
 6000211   1   6   0   0   0   -18.72     4.54   -66.12    70.08    12.99   0.0000 9.
 6000211   1   6   0   0   0    18.97    57.60   -29.36    68.61    12.99   0.0000 9.
-6000211   1   6   0   0   0    12.96   -14.97   -27.98    36.66    12.99   0.0000 9.
 6000211   1   6   0   0   0   -11.68    14.16   -21.10    30.84    12.99   0.0000 9.
-6000211   1   6   0   0   0    11.13    37.02   -36.53    54.75    12.99   0.0000 9.
 6000111   2   6   0   0   0   -30.96     5.16   -44.17    55.63    12.57   0.2949 9.
-6000211   1   6   0   0   0   -33.08    24.03    61.22    74.76    12.99   0.0000 9.
 6000211   1   6   0   0   0    35.45    14.07    12.94    42.32    12.99   0.0000 9.
 6000211   1   6   0   0   0    -5.72   -32.09    14.74    38.06    12.99   0.0000 9.
 6000111   2   6   0   0   0   -55.19  -114.19   179.54   220.17    12.57  28.5409 9.
 6000111   2   6   0   0   0    11.78  -160.64   197.03   254.80    12.57   4.0206 9.
 6000111   2   6   0   0   0    12.72   -42.07    55.16    71.64    12.57   1.6832 9.
 6000111   2   6   0   0   0    15.99   -59.23    77.98   100.01    12.57   8.5964 9.
       5   1   9   0 513   0     0.83     2.15     0.02     5.33     4.80   0.0000 9.
      -5   1   9   0   0 513     7.76     9.33     8.37    15.50     4.80   0.0000 9.
       5   1  10   0 514   0    28.56   -36.38    -8.34    47.24     4.80   0.0000 9.
      -5   1  10   0   0 514     6.10    -8.13    -0.75    11.27     4.80   0.0000 9.
       5   1  20   0 524   0   -14.81     4.44   -27.51    31.92     4.80   0.0000 9.
      -5   1  20   0   0 524   -16.14     0.71   -16.66    23.70     4.80   0.0000 9.
       5   1  24   0 528   0   -28.79   -55.49    94.78   113.64     4.80   0.0000 9.
      -5   1  24   0   0 528   -26.40   -58.69    84.76   106.53     4.80   0.0000 9.
       5   1  25   0 529   0     7.97   -66.22    77.87   102.64     4.80   0.0000 9.
      -5   1  25   0   0 529     3.81   -94.42   119.17   152.16     4.80   0.0000 9.
       5   1  26   0 530   0     4.80   -27.32    36.80    46.33     4.80   0.0000 9.
      -5   1  26   0   0 530     7.92   -14.75    18.36    25.31     4.80   0.0000 9.
       5   1  27   0 531   0     9.43   -39.45    45.70    61.29     4.80   0.0000 9.
      -5   1  27   0   0 531     6.56   -19.78    32.27    38.71     4.80   0.0000 9.
</event>
<event>
 32 661  1.  12.5671034  0.00781999994  0.115999997
      -2  -1   0   0   0 501     0.81     1.23  1024.15  1024.15     0.00 0. 9.
       2  -1   0   0 501   0     2.07    -0.22 -2687.87  2687.87     0.00 0. 9.
      32   2   1   2   0   0     2.88     1.01 -1663.72  3712.02  3318.30   0.0000 9.
 6000002   2   3   0   0   0  -687.30 -1417.62 -1409.76  2114.11     0.01   0.0000 9.
-6000002   2   3   0   0   0   690.18  1418.62  -253.96  1597.92     0.01   0.0000 9.
 6000092   2   1   2   0   0     2.88     1.01 -1663.72  3712.02  3318.30   0.0000 9.
 6000211   1   6   0   0   0   -11.32    -5.77   -30.17    35.22    12.99   0.0000 9.
 6000111   2   6   0   0   0     2.83    20.50    24.50    34.44    12.57   7.3157 9.
 6000211   1   6   0   0   0    30.38    24.49   -52.18    66.44    12.99   0.0000 9.
-6000211   1   6   0   0   0   618.14  1290.98  -209.54  1446.66    12.99   0.0000 9.
 6000211   1   6   0   0   0   -74.10  -131.63  -139.05   205.72    12.99   0.0000 9.
-6000211   1   6   0   0   0   -85.05  -149.97  -156.72   233.36    12.99   0.0000 9.
-6000211   1   6   0   0   0     5.25   -23.07   -26.58    37.88    12.99   0.0000 9.
 6000211   1   6   0   0   0    -4.83   -76.37   -91.64   120.09    12.99   0.0000 9.
 6000111   2   6   0   0   0   -28.43   -38.59   -24.28    55.19    12.57   5.2257 9.
-6000211   1   6   0   0   0   -23.14     3.29   -31.56    41.37    12.99   0.0000 9.
 6000111   2   6   0   0   0    27.13    29.47    -8.06    42.75    12.57  15.6742 9.
 6000111   2   6   0   0   0  -176.07  -376.08  -373.26   558.49    12.57  22.9174 9.
 6000111   2   6   0   0   0  -215.58  -437.45  -429.99   650.30    12.57   6.6412 9.
 6000111   2   6   0   0   0   -62.32  -128.79  -115.20   184.12    12.57   0.9027 9.
       5   1   8   0 512   0     0.48     2.58     4.72     7.23     4.80   0.0000 9.
      -5   1   8   0   0 512     2.35    17.91    19.78    27.22     4.80   0.0000 9.
       5   1  15   0 519   0   -20.64   -21.64   -14.95    33.78     4.80   0.0000 9.
      -5   1  15   0   0 519    -7.79   -16.96    -9.33    21.41     4.80   0.0000 9.
       5   1  17   0 521   0     4.06     6.82    -1.21     9.35     4.80   0.0000 9.
      -5   1  17   0   0 521    23.07    22.65    -6.85    33.39     4.80   0.0000 9.
       5   1  18   0 522   0   -65.28  -144.06  -137.87   209.87     4.80   0.0000 9.
      -5   1  18   0   0 522  -110.79  -232.02  -235.39   348.62     4.80   0.0000 9.
       5   1  19   0 523   0   -94.71  -190.11  -192.44   286.65     4.80   0.0000 9.
      -5   1  19   0   0 523  -120.87  -247.34  -237.55   363.65     4.80   0.0000 9.
       5   1  20   0 524   0   -33.49   -76.72   -64.51   105.79     4.80   0.0000 9.
      -5   1  20   0   0 524   -28.83   -52.08   -50.69    78.33     4.80   0.0000 9.
</event>
<event>
 34 661  1.  12.5671034  0.00781999994  0.115999997
      -2  -1   0   0   0 501     1.21    -2.70   872.82   872.82     0.00 0. 9.
       2  -1   0   0 501   0    -0.07     0.26 -2850.57  2850.57     0.00 0. 9.
      32   2   1   2   0   0     1.14    -2.44 -1977.75  3723.39  3154.71   0.0000 9.
 6000002   2   3   0   0   0  1177.63  -734.31  -102.20  1391.57     0.01   0.0000 9.
-6000002   2   3   0   0   0 -1176.48   731.87 -1875.55  2331.83     0.01   0.0000 9.
 6000092   2   4   0   0   0     1.14    -2.44 -1977.75  3723.39  3154.71   0.0000 9.
-6000211   1   6   0   0   0   -85.82    66.76  -243.08   266.61    12.99   0.0000 9.
 6000111   2   6   0   0   0   -92.90    56.89  -151.34   186.89    12.57  12.5306 9.
 6000111   2   6   0   0   0   -49.99   -13.69   -89.65   104.32    12.57   6.0363 9.
 6000211   1   6   0   0   0  -205.88   149.08  -406.80   479.86    12.99   0.0000 9.
-6000211   1   6   0   0   0  -161.08    93.68  -243.67   307.03    12.99   0.0000 9.
-6002212   1   6   0   0   0  -155.89   110.25  -242.81   321.00    87.36   0.0000 9.
 6002112   1   6   0   0   0  -179.59   186.63  -193.66   335.02    87.48   0.0000 9.
 6000211   1   6   0   0   0   -13.01   -27.21   -10.50    34.48    12.99   0.0000 9.
-6000211   1   6   0   0   0    14.34    -3.81    14.68    24.59    12.99   0.0000 9.
 6000211   1   6   0   0   0   117.01   -69.90     9.35   137.23    12.99   0.0000 9.
 6000211   1   6   0   0   0   -44.97    -6.94  -101.13   111.65    12.99   0.0000 9.
 6000111   2   6   0   0   0   -96.79    67.53  -213.76   244.50    12.57  30.1611 9.
 6000211   1   6   0   0   0   229.65  -106.65   -62.96   261.24    12.99   0.0000 9.
-6000211   1   6   0   0   0    19.82    -0.18    -2.08    23.79    12.99   0.0000 9.
 6000211   1   6   0   0   0   183.98  -114.88     0.10   217.29    12.99   0.0000 9.
 6000111   2   6   0   0   0    73.32   -56.51    37.72   100.75    12.57  20.7096 9.
-6000211   1   6   0   0   0   392.40  -279.28   -76.04   487.78    12.99   0.0000 9.
 6000111   2   6   0   0   0    56.53   -54.22    -2.12    79.36    12.57   8.5702 9.
       5   1   8   0 512   0   -30.74    15.40   -50.68    61.43     4.80   0.0000 9.
      -5   1   8   0   0 512   -62.17    41.49  -100.66   125.47     4.80   0.0000 9.
       5   1   9   0 513   0   -14.65    -1.26   -28.96    32.83     4.80   0.0000 9.
      -5   1   9   0   0 513   -35.34   -12.43   -60.69    71.49     4.80   0.0000 9.
       5   1  18   0 522   0   -38.39    22.23   -80.84    92.33     4.80   0.0000 9.
      -5   1  18   0   0 522   -58.41    45.30  -132.92   152.16     4.80   0.0000 9.
       5   1  22   0 526   0    34.01   -23.29    13.30    43.58     4.80   0.0000 9.
      -5   1  22   0   0 526    39.31   -33.22    24.43    57.17     4.80   0.0000 9.
       5   1  24   0 528   0    24.59   -27.11    -4.12    37.14     4.80   0.0000 9.
      -5   1  24   0   0 528    31.94   -27.11     2.00    42.22     4.80   0.0000 9.
</event>
</LesHouchesEvents>
